! TOUCHSTONE file generated by CST MICROWAVE STUDIO
! Date and time: Tue Nov 28 19:31:20 2023
! Project name: center feed with hand _ind_sweep.cst
! Parameters = {AL=32.6; AT=0; AW=1.5; C1=6e-13; Fdy=15.5; Gx=30; Gy=28; L1=4e-09; ST=1.5; ShT=0.035; Sx=30; Sy=30; b=1.5; d=1.5; d1=1; d2=5; h=3}
! Header version: 2018
! Port assignment regex: !\s*Touchstone port\s*([0-9]+)\s*=\s*(CST MWS port|CST DS port)\s*([0-9]+|Zmin|Zmax)\s*\(\"(.*)\"\)(\s*mode\s*([0-9]+))?.*
! Touchstone port assignment:
! Touchstone port 1 = CST MWS port 1 ("")
# GHz S RI R 50
2                    0.253724382     0.860059176
2.001                0.265832077     0.855969743
2.002                0.277891103     0.851702849
2.003                0.289898608     0.847258777
2.004                0.301851736     0.842637865
2.005                0.313747631     0.837840499
2.006                0.325583431     0.832867118
2.007                0.337356279     0.827718212
2.008                0.349063313     0.822394321
2.009                0.360701676     0.816896037
2.01                 0.372268513     0.811224004
2.011                 0.38376097     0.805378916
2.012                0.395176199     0.799361519
2.013                0.406511358     0.793172611
2.014                0.417763609     0.786813041
2.015                0.428930121     0.780283708
2.016                0.440008071     0.773585565
2.017                0.450994648     0.766719613
2.018                0.461887046     0.759686907
2.019                0.472682472     0.752488551
2.02                 0.483378145     0.745125701
2.021                0.493971295     0.737599562
2.022                0.504459167     0.729911391
2.023                0.514839019     0.722062497
2.024                0.525108125     0.714054234
2.025                0.535263774     0.705888013
2.026                0.545303275     0.697565288
2.027                0.555223951     0.689087567
2.028                0.565023145     0.680456406
2.029                0.574698222      0.67167341
2.03                 0.584246565     0.662740233
2.031                 0.59366558     0.653658576
2.032                0.602952692     0.644430191
2.033                0.612105354     0.635056876
2.034                0.621121039     0.625540476
2.035                0.629997255      0.61588288
2.036                0.638731518     0.606086033
2.037                 0.64732138     0.596151921
2.038                0.655764421     0.586082577
2.039                0.664058247      0.57588008
2.04                 0.672200495     0.565546552
2.041                0.680188831     0.555084164
2.042                 0.68802095     0.544495127
2.043                0.695694582       0.5337817
2.044                0.703207485     0.522946183
2.045                0.710557453     0.511990919
2.046                0.717742313     0.500918297
2.047                0.724759927     0.489730744
2.048                 0.73160819     0.478430732
2.049                0.738285036     0.467020773
2.05                 0.744788434     0.455503418
2.051                0.751116391     0.443881261
2.052                0.757266953     0.432156935
2.053                0.763238203     0.420333111
2.054                0.769028268     0.408412499
2.055                 0.77463531     0.396397847
2.056                0.780057536     0.384291942
2.057                0.785293193     0.372097605
2.058                0.790340573     0.359817696
2.059                0.795198008     0.347455109
2.06                 0.799863877     0.335012772
2.061                0.804336602     0.322493652
2.062                 0.80861465     0.309900744
2.063                0.812696536     0.297237079
2.064                 0.81658082     0.284505722
2.065                 0.82026611     0.271709767
2.066                0.823751061      0.25885234
2.067                0.827034378     0.245936599
2.068                0.830114816     0.232965729
2.069                0.832991177     0.219942946
2.07                 0.835662315     0.206871494
2.071                0.838127137     0.193754644
2.072                  0.8403846     0.180595696
2.073                0.842433712     0.167397972
2.074                0.844273537     0.154164824
2.075                0.845903191     0.140899625
2.076                0.847321843     0.127605774
2.077                 0.84852872     0.114286692
2.078                  0.8495231     0.100945822
2.079                0.850304321    0.0875866293
2.08                 0.850871775    0.0742125991
2.081                0.851224911    0.0608272362
2.082                0.851363237    0.0474340648
2.083                0.851286317    0.0340366265
2.084                0.850993776    0.0206384804
2.085                0.850485295   0.00724320156
2.086                 0.84976062  -0.00614561934
2.087                 0.84881955   -0.0195243771
2.088                0.847661949   -0.0328894535
2.089                0.846287739   -0.0462372177
2.09                 0.844696908   -0.0595640274
2.091                0.842889501   -0.0728662295
2.092                0.840865628   -0.0861401617
2.093                0.838625463   -0.0993821527
2.094                 0.83616924    -0.112588524
2.095                 0.83349726     -0.12575559
2.096                0.830609885    -0.138879661
2.097                0.827507544     -0.15195704
2.098                0.824190729     -0.16498403
2.099                0.820659999     -0.17795693
2.1                  0.816915977    -0.190872036
2.101                0.812959351    -0.203725648
2.102                0.808790878    -0.216514065
2.103                0.804411379    -0.229233586
2.104                0.799821743    -0.241880516
2.105                0.795022925    -0.254451165
2.106                0.790015949    -0.266941847
2.107                0.784801905    -0.279348882
2.108                0.779381951    -0.291668602
2.109                0.773757313    -0.303897343
2.11                 0.767929285    -0.316031457
2.111                 0.76189923    -0.328067303
2.112                0.755668578    -0.340001256
2.113                0.749238829    -0.351829706
2.114                 0.74261155    -0.363549055
2.115                0.735788379    -0.375155726
2.116                 0.72877102    -0.386646157
2.117                0.721561248    -0.398016809
2.118                0.714160906    -0.409264161
2.119                0.706571905    -0.420384715
2.12                 0.698796225    -0.431374997
2.121                0.690835916     -0.44223156
2.122                0.682693095     -0.45295098
2.123                0.674369948    -0.463529864
2.124                0.665868729    -0.473964845
2.125                 0.65719176     -0.48425259
2.126                0.648341431    -0.494389796
2.127                0.639320201    -0.504373194
2.128                0.630130594    -0.514199551
2.129                0.620775202     -0.52386567
2.13                 0.611256685    -0.533368391
2.131                0.601577767    -0.542704595
2.132                0.591741239    -0.551871202
2.133                0.581749959    -0.560865176
2.134                0.571606848    -0.569683524
2.135                0.561314893    -0.578323298
2.136                0.550877144    -0.586781599
2.137                0.540296714    -0.595055574
2.138                0.529576782     -0.60314242
2.139                0.518720584    -0.611039387
2.14                 0.507731423    -0.618743775
2.141                0.496612659    -0.626252942
2.142                0.485367714    -0.633564298
2.143                0.474000069    -0.640675312
2.144                0.462513263    -0.647583513
2.145                0.450910892    -0.654286489
2.146                 0.43919661    -0.660781887
2.147                0.427374126    -0.667067423
2.148                0.415447204    -0.673140871
2.149                0.403419663    -0.679000077
2.15                 0.391295372     -0.68464295
2.151                0.379078253    -0.690067471
2.152                0.366772278    -0.695271688
2.153                0.354381471    -0.700253723
2.154                0.341909899    -0.705011771
2.155                0.329361679      -0.7095441
2.156                0.316740974    -0.713849056
2.157                0.304051989    -0.717925058
2.158                0.291298973    -0.721770608
2.159                0.278486216    -0.725384284
2.16                 0.265618048    -0.728764747
2.161                0.252698837    -0.731910738
2.162                0.239732988    -0.734821084
2.163                0.226724942    -0.737494694
2.164                0.213679171    -0.739930563
2.165                0.200600183    -0.742127773
2.166                0.187492512    -0.744085495
2.167                0.174360724    -0.745802986
2.168                 0.16120941    -0.747279596
2.169                0.148043187    -0.748514763
2.17                 0.134866693    -0.749508019
2.171                0.121684609    -0.750258984
2.172                0.108501596    -0.750767378
2.173               0.0953223513    -0.751033013
2.174               0.0821515878    -0.751055796
2.175               0.0689940322    -0.750835728
2.176               0.0558544223    -0.750372909
2.177               0.0427375055    -0.749667534
2.178               0.0296480365    -0.748719899
2.179               0.0165907751    -0.747530394
2.18               0.00357048426    -0.746099513
2.181              -0.0094080721    -0.744427845
2.182              -0.0223401314    -0.742516081
2.183              -0.0352209345    -0.740365012
2.184              -0.0480457281    -0.737975529
2.185              -0.0608097665    -0.735348625
2.186              -0.0735083145    -0.732485392
2.187              -0.0861366494    -0.729387024
2.188               -0.098690063    -0.726054818
2.189               -0.111163864    -0.722490171
2.19                -0.123553382    -0.718694579
2.191               -0.135853966    -0.714669643
2.192               -0.148060991    -0.710417064
2.193               -0.160169858    -0.705938643
2.194               -0.172175996    -0.701236281
2.195               -0.184074865    -0.696311983
2.196                -0.19586196     -0.69116785
2.197               -0.207532812    -0.685806086
2.198               -0.219082988    -0.680228991
2.199               -0.230508097    -0.674438967
2.2                 -0.241803791    -0.668438511
2.201               -0.252965769     -0.66223022
2.202               -0.263989774    -0.655816786
2.203               -0.274871602    -0.649200997
2.204               -0.285607101    -0.642385738
2.205               -0.296192172    -0.635373986
2.206               -0.306622775    -0.628168812
2.207               -0.316894929    -0.620773381
2.208               -0.327004713    -0.613190945
2.209               -0.336948271     -0.60542485
2.21                -0.346721815     -0.59747853
2.211               -0.356321621    -0.589355506
2.212                -0.36574404    -0.581059384
2.213               -0.374985493    -0.572593858
2.214               -0.384042477    -0.563962703
2.215               -0.392911564    -0.555169778
2.216               -0.401589409    -0.546219019
2.217               -0.410072744    -0.537114446
2.218               -0.418358387    -0.527860151
2.219               -0.426443239    -0.518460306
2.22                 -0.43432429    -0.508919153
2.221               -0.441998618    -0.499241009
2.222               -0.449463393    -0.489430259
2.223               -0.456715876    -0.479491358
2.224               -0.463753424    -0.469428825
2.225                -0.47057349    -0.459247245
2.226               -0.477173624    -0.448951264
2.227               -0.483551479    -0.438545589
2.228               -0.489704805    -0.428034984
2.229               -0.495631457    -0.417424269
2.23                -0.501329396    -0.406718318
2.231               -0.506796687    -0.395922055
2.232               -0.512031502    -0.385040453
2.233               -0.517032123    -0.374078532
2.234               -0.521796943    -0.363041356
2.235               -0.526324463     -0.35193403
2.236                 -0.5306133    -0.340761697
2.237               -0.534662184     -0.32952954
2.238               -0.538469957    -0.318242773
2.239               -0.542035582    -0.306906641
2.24                -0.545358133     -0.29552642
2.241               -0.548436808     -0.28410741
2.242               -0.551270918    -0.272654936
2.243               -0.553859897    -0.261174344
2.244               -0.556203299    -0.249670996
2.245               -0.558300796     -0.23815027
2.246               -0.560152185    -0.226617557
2.247               -0.561757383    -0.215078258
2.248               -0.563116431    -0.203537779
2.249               -0.564229491    -0.192001531
2.25                 -0.56509685    -0.180474927
2.251               -0.565718918    -0.168963377
2.252               -0.566096229    -0.157472287
2.253                -0.56622944    -0.146007054
2.254               -0.566119333    -0.134573065
2.255               -0.565766814    -0.123175696
2.256               -0.565172914    -0.111820303
2.257               -0.564338785    -0.100512224
2.258               -0.563265706   -0.0892567767
2.259               -0.561955077   -0.0780592502
2.26                -0.560408422   -0.0669249075
2.261               -0.558627389   -0.0558589798
2.262               -0.556613745   -0.0448666642
2.263               -0.554369382   -0.0339531209
2.264               -0.551896312   -0.0231234698
2.265               -0.549196666   -0.0123827878
2.266               -0.546272696  -0.00173610614
2.267               -0.543126774   0.00881159312
2.268               -0.539761378    0.0192553799
2.269               -0.536179122    0.0295903785
2.27                -0.532382728    0.0398117709
2.271               -0.528375031    0.0499147996
2.272               -0.524158982    0.0598947705
2.273               -0.519737641    0.0697470557
2.274               -0.515114182    0.0794670963
2.275               -0.510291886    0.0890504054
2.276               -0.505274145    0.0984925707
2.277               -0.500064454     0.107789257
2.278               -0.494666416     0.116936211
2.279               -0.489083735     0.125929259
2.28                -0.483320219     0.134764316
2.281               -0.477379772     0.143437383
2.282               -0.471266399     0.151944554
2.283               -0.464984198     0.160282015
2.284               -0.458537364     0.168446047
2.285               -0.451930179     0.176433032
2.286               -0.445167018      0.18423945
2.287               -0.438252342     0.191861888
2.288               -0.431190697     0.199297035
2.289               -0.423986709      0.20654169
2.29                -0.416645088     0.213592762
2.291               -0.409170618     0.220447273
2.292               -0.401568158     0.227102358
2.293               -0.393842642     0.233555272
2.294                -0.38599907     0.239803385
2.295               -0.378042509     0.245844191
2.296               -0.369978091     0.251675305
2.297               -0.361811009     0.257294469
2.298               -0.353546512      0.26269955
2.299               -0.345189905     0.267888542
2.3                 -0.336746543     0.272859571
2.301               -0.328221832     0.277610895
2.302               -0.319621222     0.282140904
2.303               -0.310950204     0.286448122
2.304               -0.302214309      0.29053121
2.305               -0.293419102     0.294388967
2.306               -0.284570181      0.29802033
2.307               -0.275673172     0.301424374
2.308               -0.266733725     0.304600317
2.309               -0.257757512     0.307547518
2.31                -0.248750222     0.310265477
2.311               -0.239717559      0.31275384
2.312               -0.230665236     0.315012395
2.313               -0.221598974     0.317041076
2.314               -0.212524495     0.318839961
2.315               -0.203447521     0.320409273
2.316               -0.194373768     0.321749384
2.317               -0.185308946     0.322860807
2.318                -0.17625875     0.323744205
2.319               -0.167228857     0.324400386
2.32                -0.158224928     0.324830303
2.321               -0.149252597     0.325035055
2.322               -0.140317468     0.325015887
2.323               -0.131425116     0.324774189
2.324               -0.122581078     0.324311494
2.325               -0.113790852     0.323629479
2.326               -0.105059889     0.322729965
2.327              -0.0963935959     0.321614912
2.328              -0.0877973246     0.320286423
2.329              -0.0792763722     0.318746741
2.33               -0.0708359757     0.316998245
2.331              -0.0624813083     0.315043453
2.332              -0.0542174756     0.312885017
2.333              -0.0460495117     0.310525723
2.334              -0.0379823754     0.307968491
2.335              -0.0300209464     0.305216367
2.336              -0.0221700218     0.302272529
2.337               -0.014434312     0.299140278
2.338             -0.00681843736     0.295823041
2.339               0.0006730753     0.292324365
2.34               0.00803579647     0.288647916
2.341               0.0152653973     0.284797476
2.342               0.0223576528     0.280776942
2.343               0.0293084456      0.27659032
2.344               0.0361137688     0.272241724
2.345               0.0427697291     0.267735375
2.346               0.0492725504     0.263075592
2.347                0.055618576     0.258266796
2.348               0.0618042724     0.253313501
2.349               0.0678262311     0.248220312
2.35                0.0736811723     0.242991924
2.351               0.0793659468     0.237633116
2.352               0.0848775387     0.232148746
2.353               0.0902130679     0.226543751
2.354               0.0953697921      0.22082314
2.355                0.100345109      0.21499199
2.356                 0.10513656     0.209055446
2.357                0.109741827      0.20301871
2.358                0.114158741     0.196887044
2.359                 0.11838528      0.19066576
2.36                 0.122419569     0.184360219
2.361                0.126259885     0.177975827
2.362                0.129904656     0.171518027
2.363                0.133352463     0.164992299
2.364                0.136602051     0.158404151
2.365                0.139652297     0.151759119
2.366                0.142502246     0.145062759
2.367                0.145151097     0.138320645
2.368                0.147598205     0.131538362
2.369                0.149843081     0.124721503
2.37                 0.151885393     0.117875663
2.371                0.153724965     0.111006437
2.372                0.155361776     0.104119411
2.373                 0.15679596     0.097220163
2.374                0.158027809    0.0903142536
2.375                0.159057766    0.0834072238
2.376                0.159886428    0.0765045897
2.377                0.160514547    0.0696118385
2.378                0.160943022    0.0627344235
2.379                0.161172905    0.0558777602
2.38                 0.161205397    0.0490472213
2.381                0.161041844    0.0422481329
2.382                0.160683738      0.03548577
2.383                0.160132716    0.0287653522
2.384                0.159390554    0.0220920399
2.385                0.158459169    0.0154709298
2.386                0.157340615    0.0089070512
2.387                0.156037082   0.00240536206
2.388                0.154550888   -0.0040292549
2.389                0.152884487   -0.0103919958
2.39                 0.151040455   -0.0166781395
2.391                0.149021494   -0.0228830506
2.392                0.146830427   -0.0290021836
2.393                0.144470196   -0.0350310854
2.394                0.141943858   -0.0409653991
2.395                 0.13925458   -0.0468008671
2.396                 0.13640564   -0.0525333334
2.397                0.133400419   -0.0581587474
2.398                0.130242401   -0.0636731659
2.399                0.126935169    -0.069072756
2.4                  0.123482397   -0.0743537975
2.401                0.119887854   -0.0795126853
2.402                0.116155393   -0.0845459317
2.403                0.112288952   -0.0894501682
2.404                0.108292547   -0.0942221478
2.405                 0.10417027   -0.0988587465
2.406               0.0999262853    -0.103356965
2.407               0.0955648243    -0.107713931
2.408               0.0910901816    -0.111926899
2.409               0.0865067119    -0.115993254
2.41                0.0818188252    -0.119910509
2.411               0.0770309831     -0.12367631
2.412               0.0721476946    -0.127288434
2.413               0.0671735123    -0.130744792
2.414               0.0621130278    -0.134043426
2.415               0.0569708684    -0.137182516
2.416               0.0517516923    -0.140160371
2.417               0.0464601854    -0.142975438
2.418               0.0411010564    -0.145626298
2.419               0.0356790336    -0.148111664
2.42                0.0301988607    -0.150430386
2.421               0.0246652926    -0.152581446
2.422               0.0190830921    -0.154563961
2.423               0.0134570256    -0.156377179
2.424              0.00779185952    -0.158020482
2.425               0.0020923566    -0.159493384
2.426             -0.00363672782    -0.160795526
2.427             -0.00939064942    -0.161926684
2.428              -0.0151646784    -0.162886758
2.429              -0.0209541032    -0.163675779
2.43               -0.0267542335      -0.1642939
2.431               -0.032560404    -0.164741403
2.432              -0.0383679774    -0.165018691
2.433              -0.0441723479     -0.16512629
2.434              -0.0499689443    -0.165064844
2.435              -0.0557532326    -0.164835117
2.436              -0.0615207197    -0.164437991
2.437              -0.0672669558     -0.16387446
2.438              -0.0729875375    -0.163145633
2.439              -0.0786781105    -0.162252729
2.44               -0.0843343718    -0.161197076
2.441              -0.0899520732    -0.159980109
2.442               -0.095527023    -0.158603368
2.443               -0.101055089    -0.157068493
2.444               -0.106532199    -0.155377228
2.445               -0.111954347    -0.153531412
2.446               -0.117317591    -0.151532981
2.447               -0.122618058    -0.149383964
2.448               -0.127851944    -0.147086479
2.449               -0.133015516    -0.144642734
2.45                -0.138105118    -0.142055023
2.451               -0.143117155    -0.139325723
2.452               -0.148048132    -0.136457293
2.453               -0.152894621    -0.133452266
2.454               -0.157653273    -0.130313257
2.455               -0.162320823     -0.12704295
2.456               -0.166894087    -0.123644101
2.457               -0.171369964    -0.120119533
2.458               -0.175745438    -0.116472138
2.459                -0.18001758    -0.112704867
2.46                -0.184183548    -0.108820733
2.461               -0.188240586    -0.104822809
2.462               -0.192186029    -0.100714219
2.463               -0.196017299   -0.0964981433
2.464               -0.199731908   -0.0921778113
2.465               -0.203327462   -0.0877565001
2.466               -0.206801654   -0.0832375318
2.467               -0.210152272   -0.0786242717
2.468               -0.213377192   -0.0739201249
2.469               -0.216474386   -0.0691285346
2.47                -0.219441917    -0.064252979
2.471                -0.22227794   -0.0592969696
2.472               -0.224980706   -0.0542640481
2.473               -0.227548555   -0.0491577844
2.474               -0.229979922   -0.0439817744
2.475               -0.232273337   -0.0387396373
2.476               -0.234427419   -0.0334350134
2.477               -0.236440882   -0.0280715621
2.478               -0.238312534   -0.0226529594
2.479               -0.240041272   -0.0171828958
2.48                -0.241626089   -0.0116650739
2.481               -0.243066066  -0.00610320686
2.482                -0.24436038 -0.000501015445
2.483               -0.245508295   0.00513777344
2.484               -0.246509168    0.0108094291
2.485               -0.247362445    0.0165102188
2.486               -0.248067663    0.0222364101
2.487               -0.248624448    0.0279842726
2.488               -0.249032514      0.03375008
2.489               -0.249291663    0.0395301118
2.49                -0.249401785    0.0453206551
2.491               -0.249362855    0.0511180071
2.492               -0.249174937    0.0569184758
2.493               -0.248838179    0.0627183827
2.494               -0.248352811    0.0685140643
2.495               -0.247719152    0.0743018734
2.496               -0.246937598    0.0800781812
2.497               -0.246008633    0.0858393788
2.498               -0.244932818    0.0915818788
2.499               -0.243710797     0.097302117
2.5                 -0.242343292     0.102996554
2.501               -0.240831105     0.108661675
2.502               -0.239175115     0.114293996
2.503               -0.237376279     0.119890059
2.504               -0.235435628     0.125446439
2.505                -0.23335427      0.13095974
2.506               -0.231133386     0.136426602
2.507                -0.22877423       0.1418437
2.508                -0.22627813     0.147207741
2.509               -0.223646481     0.152515475
2.51                -0.220880751     0.157763685
2.511               -0.217982478     0.162949199
2.512               -0.214953264     0.168068881
2.513               -0.211794782     0.173119641
2.514               -0.208508768     0.178098431
2.515               -0.205097024     0.183002248
2.516               -0.201561415     0.187828133
2.517               -0.197903869     0.192573176
2.518               -0.194126376     0.197234515
2.519               -0.190230986     0.201809334
2.52                -0.186219806     0.206294871
2.521               -0.182095005     0.210688411
2.522               -0.177858806     0.214987293
2.523               -0.173513488     0.219188911
2.524               -0.169061386     0.223290708
2.525               -0.164504888     0.227290187
2.526               -0.159846434     0.231184904
2.527               -0.155088514     0.234972471
2.528                -0.15023367      0.23865056
2.529               -0.145284491     0.242216899
2.53                -0.140243615     0.245669277
2.531               -0.135113724     0.249005543
2.532               -0.129897548     0.252223607
2.533               -0.124597858     0.255321438
2.534               -0.119217469     0.258297072
2.535               -0.113759237     0.261148605
2.536               -0.108226059     0.263874197
2.537               -0.102620868     0.266472075
2.538              -0.0969466379     0.268940529
2.539               -0.091206376     0.271277917
2.54               -0.0854031259     0.273482662
2.541              -0.0795399642     0.275553255
2.542                   -0.07362     0.277488256
2.543              -0.0676463732     0.279286291
2.544               -0.061622253      0.28094606
2.545              -0.0555508371     0.282466327
2.546              -0.0494353499      0.28384593
2.547               -0.043279041     0.285083777
2.548              -0.0370851844     0.286178847
2.549              -0.0308570766     0.287130192
2.55               -0.0245980351     0.287936935
2.551              -0.0183113976     0.288598273
2.552              -0.0120005199     0.289113475
2.553             -0.00566877491     0.289481884
2.554             0.000680449192     0.289702918
2.555              0.00704375004     0.289776068
2.556               0.0134177128     0.289700901
2.557               0.0197989115     0.289477059
2.558               0.0261839108     0.289104257
2.559               0.0325692672     0.288582289
2.56                0.0389515306     0.287911023
2.561                0.045327246     0.287090403
2.562                0.051692955     0.286120451
2.563               0.0580451972     0.285001263
2.564               0.0643805119     0.283733014
2.565               0.0706954477     0.282315953
2.566               0.0769865397     0.280750409
2.567               0.0832503357     0.279036786
2.568               0.0894833893     0.277175565
2.569               0.0956822618     0.275167304
2.57                 0.101843524     0.273012639
2.571                0.107963756     0.270712282
2.572                0.114039553     0.268267021
2.573                0.120067522     0.265677722
2.574                0.126044287     0.262945327
2.575                0.131966488     0.260070854
2.576                0.137830785     0.257055397
2.577                0.143633859     0.253900126
2.578                0.149372412     0.250606288
2.579                0.155043172     0.247175204
2.58                  0.16064289     0.243608268
2.581                0.166168347     0.239906952
2.582                 0.17161635       0.2360728
2.583                0.176983739     0.232107429
2.584                0.182267385     0.228012532
2.585                0.187464193     0.223789872
2.586                0.192571104     0.219441285
2.587                0.197585097     0.214968676